# vtk DataFile Version 2.0
Two phases flow simulation
ASCII
DATASET UNSTRUCTURED_GRID
POINTS 45 float
0 0 0 
1 0 0 
1 1 0 
0 1 0 
0.2 0 0 
0.4 0 0 
0.6 0 0 
0.8 0 0 
1 0.2 0 
1 0.4 0 
1 0.6 0 
1 0.8 0 
0.8 1 0 
0.6 1 0 
0.4 1 0 
0.2 1 0 
0 0.8 0 
0 0.6 0 
0 0.4 0 
0 0.2 0 
0.5 0.5 0 
0.7125 0.7125 0 
0.2875 0.7125 0 
0.7125 0.2875 0 
0.2875 0.2875 0 
0.489674 0.796064 0 
0.203936 0.489674 0 
0.796064 0.510326 0 
0.510326 0.203936 0 
0.832917 0.832917 0 
0.167083 0.832917 0 
0.832917 0.167083 0 
0.167083 0.167083 0 
0.569656 0.631657 0 
0.368548 0.568966 0 
0.616795 0.424471 0 
0.424576 0.383047 0 
0.312063 0.8675 0 
0.1325 0.312063 0 
0.8675 0.687937 0 
0.687937 0.1325 0 
0.687018 0.868296 0 
0.131704 0.687018 0 
0.868296 0.312982 0 
0.312982 0.131704 0 

CELLS 68 272
3 9 27 43 
3 24 36 26 
3 26 36 34 
3 8 9 43 
3 0 32 19 
3 24 32 44 
3 24 26 38 
3 27 33 35 
3 18 38 26 
3 22 34 25 
3 25 34 33 
3 18 19 38 
3 22 26 34 
3 24 44 28 
3 23 43 27 
3 24 28 36 
3 28 35 36 
3 9 10 27 
3 1 8 31 
3 13 14 25 
3 23 27 35 
3 20 36 35 
3 8 43 31 
3 22 42 26 
3 13 25 41 
3 20 34 36 
3 21 27 39 
3 1 31 7 
3 21 25 33 
3 21 33 27 
3 24 38 32 
3 17 18 26 
3 19 32 38 
3 21 41 25 
3 16 42 30 
3 6 7 40 
3 17 26 42 
3 14 37 25 
3 22 25 37 
3 0 4 32 
3 2 12 29 
3 4 44 32 
3 10 39 27 
3 7 31 40 
3 23 31 43 
3 16 17 42 
3 6 40 28 
3 3 16 30 
3 20 35 33 
3 20 33 34 
3 22 30 42 
3 12 13 41 
3 5 28 44 
3 2 29 11 
3 23 35 28 
3 4 5 44 
3 23 40 31 
3 3 30 15 
3 23 28 40 
3 14 15 37 
3 21 39 29 
3 5 6 28 
3 22 37 30 
3 15 30 37 
3 21 29 41 
3 12 41 29 
3 10 11 39 
3 11 29 39 

CELL_TYPES 68
5
5
5
5
5
5
5
5
5
5
5
5
5
5
5
5
5
5
5
5
5
5
5
5
5
5
5
5
5
5
5
5
5
5
5
5
5
5
5
5
5
5
5
5
5
5
5
5
5
5
5
5
5
5
5
5
5
5
5
5
5
5
5
5
5
5
5
5

POINT_DATA 45
SCALARS Pressure float 1
LOOKUP_TABLE default
3.75052022
0.00000000
-6.49507150
0.00000000
2.69879846
1.68839649
0.76063411
0.27082799
-0.27037376
-0.77475971
-1.74717004
-3.84081269
-3.84081192
-1.74716824
-0.77475634
-0.27037143
0.27082816
0.76063390
1.68839479
2.69879714
0.01928027
-1.58406408
0.00536950
0.00536977
1.66294012
-0.81395189
0.90293122
-0.88921037
0.82227895
-3.64099327
0.00312053
0.00312069
2.53730338
-0.67364693
0.19045328
-0.10597088
0.72019478
-0.24026796
1.84416550
-1.84870527
0.24562729
-1.83954279
0.24793585
-0.24260432
1.84092893
SCALARS Saturation float 1
LOOKUP_TABLE default
1.00000000
0.00000000
0.00000000
0.00000000
0.45473001
0.07297335
0.01824334
0.00000000
0.00000000
0.00000000
0.00000000
0.00000000
0.00000000
0.00000000
0.00000000
0.00000000
0.00000000
0.01808828
0.07235313
0.45426484
0.00000000
0.00000000
0.00000000
0.00000000
0.08168740
0.00000000
0.00338920
0.00000000
0.00000000
0.00000000
0.00000000
0.00000000
0.46631398
0.00000000
0.00000000
0.00000000
0.02475532
0.00000000
0.08680882
0.00000000
0.00000000
0.00000000
0.00000000
0.00000000
0.08509336
