# vtk DataFile Version 2.0
Two phases flow simulation
ASCII
DATASET UNSTRUCTURED_GRID
POINTS 142 float
0 0 0 
1 0 0 
1 1 0 
0 1 0 
0.1 0 0 
0.2 0 0 
0.3 0 0 
0.4 0 0 
0.5 0 0 
0.6 0 0 
0.7 0 0 
0.8 0 0 
0.9 0 0 
1 0.1 0 
1 0.2 0 
1 0.3 0 
1 0.4 0 
1 0.5 0 
1 0.6 0 
1 0.7 0 
1 0.8 0 
1 0.9 0 
0.9 1 0 
0.8 1 0 
0.7 1 0 
0.6 1 0 
0.5 1 0 
0.4 1 0 
0.3 1 0 
0.2 1 0 
0.1 1 0 
0 0.9 0 
0 0.8 0 
0 0.7 0 
0 0.6 0 
0 0.5 0 
0 0.4 0 
0 0.3 0 
0 0.2 0 
0 0.1 0 
0.5 0.5 0 
0.707143 0.707143 0 
0.292857 0.707143 0 
0.707143 0.292857 0 
0.292857 0.292857 0 
0.497 0.78488 0 
0.21512 0.497 0 
0.78488 0.503 0 
0.503 0.21512 0 
0.829497 0.829497 0 
0.170503 0.829497 0 
0.829497 0.170503 0 
0.170503 0.170503 0 
0.64071 0.848866 0 
0.151134 0.64071 0 
0.359205 0.848175 0 
0.848175 0.640795 0 
0.848866 0.35929 0 
0.151825 0.359205 0 
0.35929 0.151134 0 
0.640795 0.151825 0 
0.566986 0.640157 0 
0.363936 0.572011 0 
0.640157 0.433014 0 
0.431769 0.356433 0 
0.431587 0.659528 0 
0.666173 0.558699 0 
0.345738 0.434531 0 
0.558699 0.333827 0 
0.460465 0.890324 0 
0.109676 0.460465 0 
0.890324 0.539535 0 
0.539535 0.109676 0 
0.739074 0.902335 0 
0.0976651 0.739074 0 
0.902335 0.260926 0 
0.260926 0.0976651 0 
0.900559 0.740305 0 
0.259695 0.900559 0 
0.740305 0.0994409 0 
0.0994409 0.259695 0 
0.604121 0.745283 0 
0.255748 0.607779 0 
0.745283 0.395879 0 
0.395879 0.254717 0 
0.393407 0.746481 0 
0.747312 0.605379 0 
0.254177 0.393775 0 
0.605379 0.252688 0 
0.900122 0.900122 0 
0.0998781 0.900122 0 
0.900122 0.0998781 0 
0.0998781 0.0998781 0 
0.56908 0.916779 0 
0.0832208 0.56908 0 
0.916779 0.43092 0 
0.43092 0.0832208 0 
0.793413 0.720731 0 
0.279067 0.793275 0 
0.720731 0.206587 0 
0.206835 0.279128 0 
0.727794 0.801265 0 
0.198735 0.727794 0 
0.801265 0.272206 0 
0.272206 0.198735 0 
0.487185 0.589351 0 
0.580327 0.541124 0 
0.409677 0.491135 0 
0.554918 0.426801 0 
0.650232 0.640017 0 
0.353859 0.654371 0 
0.642499 0.348048 0 
0.347016 0.354627 0 
0.649773 0.933596 0 
0.066404 0.649773 0 
0.933596 0.350227 0 
0.350227 0.066404 0 
0.927812 0.644127 0 
0.644127 0.0721883 0 
0.355873 0.927812 0 
0.0721883 0.355873 0 
0.820102 0.920029 0 
0.0799714 0.820102 0 
0.920029 0.179898 0 
0.179898 0.0799714 0 
0.920029 0.820102 0 
0.820102 0.0799714 0 
0.179898 0.920029 0 
0.0799714 0.179898 0 
0.507721 0.698509 0 
0.302103 0.508689 0 
0.712239 0.495415 0 
0.495238 0.287274 0 
0.554275 0.837226 0 
0.166875 0.55907 0 
0.837226 0.445725 0 
0.445725 0.162774 0 
0.427519 0.817465 0 
0.182699 0.427611 0 
0.817673 0.572177 0 
0.572177 0.182327 0 
0.461024 0.432542 0 

CELLS 242 968
3 44 104 84 
3 35 36 70 
3 36 120 70 
3 59 84 104 
3 44 84 112 
3 26 27 69 
3 35 70 94 
3 63 66 106 
3 49 97 77 
3 45 137 85 
3 63 131 66 
3 54 114 94 
3 55 85 137 
3 44 112 87 
3 49 121 73 
3 44 100 104 
3 45 69 137 
3 16 95 115 
3 34 35 94 
3 63 106 108 
3 55 137 69 
3 34 94 114 
3 61 106 109 
3 129 45 85 
3 27 119 69 
3 55 69 119 
3 42 110 85 
3 59 104 76 
3 55 119 78 
3 57 115 95 
3 67 87 112 
3 18 117 71 
3 70 134 94 
3 25 26 93 
3 61 105 106 
3 56 77 97 
3 56 139 71 
3 54 94 134 
3 63 83 131 
3 44 87 100 
3 1 13 91 
3 54 74 114 
3 58 70 120 
3 18 19 117 
3 15 16 115 
3 0 92 39 
3 49 89 121 
3 19 77 117 
3 47 71 139 
3 33 34 114 
3 59 136 84 
3 26 69 93 
3 54 82 102 
3 40 108 106 
3 1 91 12 
3 66 131 86 
3 55 98 85 
3 49 101 97 
3 61 81 129 
3 36 37 120 
3 71 135 95 
3 50 78 127 
3 45 133 69 
3 24 25 113 
3 54 102 74 
3 63 108 111 
3 56 97 86 
3 60 88 140 
3 45 129 81 
3 43 99 103 
3 58 138 70 
3 66 109 106 
3 46 70 138 
3 61 109 81 
3 17 18 71 
3 54 134 82 
3 56 71 117 
3 51 126 91 
3 50 90 122 
3 50 122 74 
3 55 78 98 
3 42 82 110 
3 51 75 103 
3 65 85 110 
3 57 75 115 
3 60 140 72 
3 43 103 83 
3 19 20 77 
3 39 92 128 
3 53 101 73 
3 131 47 86 
3 40 106 105 
3 17 71 95 
3 59 76 116 
3 49 77 125 
3 23 73 121 
3 0 4 92 
3 51 103 99 
3 41 86 97 
3 42 102 82 
3 50 74 102 
3 46 134 70 
3 56 86 139 
3 64 112 84 
3 27 28 119 
3 63 111 83 
3 42 85 98 
3 56 117 77 
3 53 81 101 
3 38 39 128 
3 2 89 21 
3 49 73 101 
3 53 73 113 
3 68 111 108 
3 61 129 105 
3 15 115 75 
3 22 121 89 
3 51 91 123 
3 53 133 81 
3 43 83 111 
3 23 24 73 
3 2 22 89 
3 33 114 74 
3 45 81 133 
3 50 98 78 
3 58 87 138 
3 64 67 112 
3 47 139 86 
3 46 138 87 
3 16 17 95 
3 57 103 75 
3 43 111 88 
3 22 23 121 
3 57 95 135 
3 50 127 90 
3 8 9 72 
3 31 32 122 
3 24 113 73 
3 32 74 122 
3 47 135 71 
3 6 7 116 
3 65 129 85 
3 28 78 119 
3 50 102 98 
3 31 122 90 
3 53 93 133 
3 52 104 100 
3 12 91 126 
3 6 116 76 
3 108 141 68 
3 47 131 83 
3 67 130 87 
3 58 100 87 
3 57 83 103 
3 41 97 101 
3 42 98 102 
3 51 123 75 
3 66 86 109 
3 59 116 96 
3 68 88 111 
3 9 10 118 
3 52 128 92 
3 53 113 93 
3 52 76 104 
3 13 123 91 
3 25 93 113 
3 60 72 118 
3 60 118 79 
3 51 79 126 
3 43 88 99 
3 60 99 88 
3 40 141 108 
3 9 118 72 
3 29 127 78 
3 69 133 93 
3 67 141 107 
3 38 128 80 
3 62 110 82 
3 48 84 136 
3 60 79 99 
3 46 82 134 
3 13 14 123 
3 40 107 141 
3 59 96 136 
3 58 120 80 
3 32 33 74 
3 41 109 86 
3 49 125 89 
3 30 90 127 
3 14 15 75 
3 51 99 79 
3 41 81 109 
3 68 141 64 
3 40 105 107 
3 3 31 90 
3 67 107 130 
3 5 6 76 
3 37 80 120 
3 11 12 126 
3 20 125 77 
3 7 8 96 
3 48 140 88 
3 130 46 87 
3 28 29 78 
3 64 141 67 
3 3 90 30 
3 41 101 81 
3 14 75 123 
3 57 135 83 
3 48 132 84 
3 48 72 140 
3 68 132 88 
3 7 96 116 
3 62 65 110 
3 4 124 92 
3 64 84 132 
3 64 132 68 
3 29 30 127 
3 46 130 82 
3 58 80 100 
3 52 80 128 
3 52 92 124 
3 21 89 125 
3 65 105 129 
3 47 83 135 
3 20 21 125 
3 37 38 80 
3 11 126 79 
3 8 72 96 
3 5 76 124 
3 62 82 130 
3 52 124 76 
3 52 100 80 
3 10 79 118 
3 62 107 105 
3 48 136 72 
3 62 130 107 
3 4 5 124 
3 72 136 96 
3 62 105 65 
3 10 11 79 
3 132 48 88 

CELL_TYPES 242
5
5
5
5
5
5
5
5
5
5
5
5
5
5
5
5
5
5
5
5
5
5
5
5
5
5
5
5
5
5
5
5
5
5
5
5
5
5
5
5
5
5
5
5
5
5
5
5
5
5
5
5
5
5
5
5
5
5
5
5
5
5
5
5
5
5
5
5
5
5
5
5
5
5
5
5
5
5
5
5
5
5
5
5
5
5
5
5
5
5
5
5
5
5
5
5
5
5
5
5
5
5
5
5
5
5
5
5
5
5
5
5
5
5
5
5
5
5
5
5
5
5
5
5
5
5
5
5
5
5
5
5
5
5
5
5
5
5
5
5
5
5
5
5
5
5
5
5
5
5
5
5
5
5
5
5
5
5
5
5
5
5
5
5
5
5
5
5
5
5
5
5
5
5
5
5
5
5
5
5
5
5
5
5
5
5
5
5
5
5
5
5
5
5
5
5
5
5
5
5
5
5
5
5
5
5
5
5
5
5
5
5
5
5
5
5
5
5
5
5
5
5
5
5
5
5
5
5
5
5
5
5
5
5
5
5
5
5
5
5
5
5

POINT_DATA 142
SCALARS Pressure float 1
LOOKUP_TABLE default
6.68388527
0.00000000
-9.47156918
0.00000000
5.00714257
3.38894427
2.37115547
1.65634734
1.12192727
0.70737022
0.39426656
0.17367516
0.04230931
-0.04080564
-0.17142332
-0.39094683
-0.70246666
-1.12024594
-1.66202913
-2.37929059
-3.41848805
-5.21578185
-5.21551403
-3.41738691
-2.37669186
-1.65743109
-1.12195486
-0.70701029
-0.39377411
-0.17317913
-0.04193423
0.04119989
0.17199886
0.39160958
0.70310055
1.12044936
1.66105574
2.37373952
3.38998898
5.00730792
0.00006671
-1.53319302
-0.00011686
0.00093078
1.53593565
-0.84277516
0.86761224
-0.86642047
0.84349490
-2.93566368
-0.00042148
0.00103354
2.95089438
-1.70828897
0.45920693
-0.45874397
-1.70709546
-0.45842147
1.70817960
1.70918442
0.45933676
-0.70189185
0.19886455
-0.22592794
0.71911754
-0.27888067
-0.75594942
0.74496552
0.33186058
-0.87732413
1.23590596
-1.23549027
0.87771434
-2.56128947
0.25373335
-0.25305601
2.56106666
-2.56655375
-0.25044246
0.25099819
2.56665901
-1.20425149
0.36973881
-0.38287399
1.20568464
-0.37858280
-1.21614610
1.21706159
0.38511620
-4.31580777
-0.00040922
0.00087977
4.41145730
-1.42525680
0.78537420
-0.78465035
1.42513192
-1.99325156
-0.15127484
0.15269079
1.99693473
-2.07067536
0.14852091
-0.14771743
2.07484757
-0.25154796
-0.40777883
0.32899052
0.05958562
-1.01634781
-0.02345746
0.02828326
1.05001443
-1.94248439
0.51668031
-0.51597918
1.94124312
-1.89597897
0.53248572
-0.53200263
1.89515538
-3.44639026
0.11161923
-0.11104516
3.45176115
-3.44672869
0.11307865
-0.11255816
3.45204309
-0.66077174
0.59811478
-0.65219979
0.69090555
-1.21450896
0.71680991
-0.74122958
1.21512573
-0.63974948
1.25891257
-1.25761872
0.64183520
0.35760464
SCALARS Saturation float 1
LOOKUP_TABLE default
1.00000000
0.00000000
0.00000000
0.00000000
0.23990678
0.00000000
0.00000000
0.00000000
0.00000000
0.00000000
0.00000000
0.00000000
0.00000000
0.00000000
0.00000000
0.00000000
0.00000000
0.00000000
0.00000000
0.00000000
0.00000000
0.00000000
0.00000000
0.00000000
0.00000000
0.00000000
0.00000000
0.00000000
0.00000000
0.00000000
0.00000000
0.00000000
0.00000000
0.00000000
0.00000000
0.00000000
0.00000000
0.00000000
0.00000000
0.23988284
0.00000000
0.00000000
0.00000000
0.00000000
0.00000000
0.00000000
0.00000000
0.00000000
0.00000000
0.00000000
0.00000000
0.00000000
0.00000000
0.00000000
0.00000000
0.00000000
0.00000000
0.00000000
0.00000000
0.00000000
0.00000000
0.00000000
0.00000000
0.00000000
0.00000000
0.00000000
0.00000000
0.00000000
0.00000000
0.00000000
0.00000000
0.00000000
0.00000000
0.00000000
0.00000000
0.00000000
0.00000000
0.00000000
0.00000000
0.00000000
0.00000000
0.00000000
0.00000000
0.00000000
0.00000000
0.00000000
0.00000000
0.00000000
0.00000000
0.00000000
0.00000000
0.00000000
0.16908200
0.00000000
0.00000000
0.00000000
0.00000000
0.00000000
0.00000000
0.00000000
0.00000000
0.00000000
0.00000000
0.00000000
0.00000000
0.00000000
0.00000000
0.00000000
0.00000000
0.00000000
0.00000000
0.00000000
0.00000000
0.00000000
0.00000000
0.00000000
0.00000000
0.00000000
0.00000000
0.00000000
0.00000000
0.00000000
0.00000000
0.00000000
0.00000000
0.00000000
0.00000000
0.00000000
0.00000000
0.00000000
0.00000000
0.00000000
0.00000000
0.00000000
0.00000000
0.00000000
0.00000000
0.00000000
0.00000000
0.00000000
0.00000000
0.00000000
