# vtk DataFile Version 2.0
Two phases flow simulation
ASCII
DATASET UNSTRUCTURED_GRID
POINTS 21 float
0 0 0 
1 0 0 
1 1 0 
0 1 0 
0.333333 0 0 
0.666667 0 0 
1 0.333333 0 
1 0.666667 0 
0.666667 1 0 
0.333333 1 0 
0 0.666667 0 
0 0.333333 0 
0.5 0.5 0 
0.291667 0.708333 0 
0.291667 0.291667 0 
0.708333 0.708333 0 
0.708333 0.291667 0 
0.5 0.172619 0 
0.172619 0.5 0 
0.827381 0.5 0 
0.5 0.827381 0 

CELLS 28 112
3 1 6 16 
3 6 19 16 
3 12 16 19 
3 2 8 15 
3 6 7 19 
3 1 16 5 
3 2 15 7 
3 12 13 18 
3 3 13 9 
3 7 15 19 
3 12 19 15 
3 12 18 14 
3 8 9 20 
3 9 13 20 
3 0 14 11 
3 0 4 14 
3 10 18 13 
3 11 14 18 
3 12 17 16 
3 12 20 13 
3 8 20 15 
3 10 11 18 
3 3 10 13 
3 12 15 20 
3 5 16 17 
3 12 14 17 
3 4 17 14 
3 4 5 17 

CELL_TYPES 28
5
5
5
5
5
5
5
5
5
5
5
5
5
5
5
5
5
5
5
5
5
5
5
5
5
5
5
5

POINT_DATA 21
SCALARS Pressure float 1
LOOKUP_TABLE default
3.75052022
0.00000000
-6.49507150
0.00000000
1.99765062
0.45137998
-0.45062293
-2.07130681
-2.07130554
-0.45061904
0.45138027
1.99764842
0.01928027
0.00544732
1.63268534
-1.51289006
0.00544760
0.94009092
0.94008849
-0.93460091
-0.93459890
SCALARS Saturation float 1
LOOKUP_TABLE default
1.00000000
0.00000000
0.00000000
0.00000000
0.09121669
0.00000000
0.00000000
0.00000000
0.00000000
0.00000000
0.00000000
0.09044141
0.00000000
0.00000000
0.06837853
0.00000000
0.00000000
0.00000000
0.00000000
0.00000000
0.00000000
